<?xml version="1.0"?>
<VTKFile type="PolyData" version="0.1" byte_order="LittleEndian">
  <PolyData>
    <Piece NumberOfLines="362" NumberOfPoints="724">
      <PointData Scalars="pressure [mmHg]">
        <DataArray type="Float32" Name="pressure [mmHg]" NumberOfComponents="1" format="ascii">
          29.4699 0 0 0 60.5525 0 0 59.9974 0 0 27.5873 0
          0 27.8273 0 0 25.8771 0 0 25.9596 0 0 58.0173 0
          0 57.5897 0 0 0 29.5599 0 0 0 26.1546 0 0
          0 0 0 0 0 0 0 0 0 30.31 0 0
          0 0 0 0 0 26.3497 0 0 0 0 0 28.9674
          0 0 0 0 0 26.5522 0 28.5773 0 0 0 0
          0 28.6374 0 0 26.6722 0 0 0 0 26.9572 0 0
          0 0 0 0 0 0 0 26.8072 0 30.94 0 0
          0 0 0 0 0 0 0 0 0 0 0 0
          0 0 0 0 0 0 0 26.7772 0 0 0 0
          0 0 0 0 0 0 0 31.3676 0 31.3901 0 31.3601
          0 0 0 31.1726 0 0 0 0 0 0 0 0
          0 0 0 0 0 0 0 30.685 0 59.9599 0 59.9449
          0 59.9449 0 0 0 0 0 0 0 27.9023 0 0
          0 0 0 0 0 0 0 0 0 0 0 0
          0 0 0 0 29.9725 0 0 0 0 0 0 0
          0 0 0 0 0 27.7298 0 0 0 30.0625 0 27.7973
          0 0 29.965 0 0 31.5101 0 0 0 0 51.5067 0
          32.0726 0 0 0 0 0 0 0 0 0 31.4351 0
          0 0 0 0 0 0 0 0 0 0 0 0
          0 0 0 0 28.8699 0 0 0 31.3676 0 0 0
          0 0 31.4426 0 0 0 0 0 0 0 58.3173 0
          0 58.6248 29.6574 0 0 0 0 0 0 28.5248 0 0
          0 0 0 0 0 31.4576 0 0 0 0 0 0
          31.3826 0 0 0 0 0 0 0 0 0 0 57.1772
          0 31.4876 0 31.4351 0 0 29.9875 0 28.3298 0 0 31.3301
          0 0 0 0 0 28.2323 0 0 0 0 0 0
          0 57.1772 0 0 0 57.1397 0 0 0 0 0 0
          0 0 0 58.7223 0 0 0 0 0 0 0 0
          0 0 29.3124 0 0 0 0 0 29.0574 0 31.3676 0
          0 0 0 0 31.6376 0 0 0 0 0 0 0
          0 0 0 29.1774 0 0 0 0 0 0 0 0
          28.8924 0 0 31.3676 0 0 0 0 0 59.3149 0 0
          27.4223 0 0 0 0 0 0 0 0 0 0 0
          27.6698 0 0 0 0 0 0 29.4849 0 0 0 0
          0 0 0 0 0 0 0 0 0 0 0 0
          0 0 0 0 0 0 0 0 0 0 0 0
          56.2621 0 0 29.0649 0 0 31.5401 0 0 0 0 0
          0 0 0 0 0 31.7876 0 0 0 0 0 0
          0 0 0 0 0 0 0 0 0 0 0 0
          0 0 0 0 0 0 0 0 0 0 0 0
          0 28.8549 0 0 0 0 0 0 0 0 0 0
          0 0 0 0 0 0 0 31.4576 0 0 0 0
          0 28.3448 0 0 0 0 0 0 0 27.1597 0 0
          0 28.4798 0 0 0 0 0 29.5449 0 0 31.5401 0
          0 0 0 31.5851 0 0 0 0 0 0 0 0
          0 0 0 27.7598 28.8999 0 0 0 0 0 0 0
          0 0 0 0 0 0 0 0 0 0 0 0
          0 0 0 31.5476 0 0 0 0 0 31.5551 0 0
          0 31.9001 0 0 0 32.2001 0 0 0 0 0 0
          0 0 0 0 0 28.9524 31.7426 0 0 0 0 0
          0 28.5323 0 0 0 0 0 0 0 0 0 31.6526
          0 0 0 0 0 56.1496 0 56.1571 0 0 0 31.6076
          0 0 0 0 0 0 0 0 0 0 0 31.4951
          28.8624 0 0 0 0 0 0 0 0 0 0 0
          0 0 0 0 0 0 0 0 0 0 0 31.7126
          0 0 0 0 0 0 0 0 0 0 31.7276 0
          0 0 0 0 0 0 0 0 0 0 0 31.6901
          0 31.9826 0 0 0 31.7726 0 0 0 0 0 0
          0 31.8101 0 0 0 0 0 0 0 31.8251 0 31.9151
          0 0 0 0
        </DataArray>
      </PointData>
      <CellData Scalars="R">
        <DataArray type="Float32" Name="R" NumberOfComponents="1" format="ascii">
          7.67469e-06 7.73683e-06 1.36467e-05 1.11149e-05 1.26339e-05 1.00491e-05 5.4898e-06 1.0232e-05 1.29626e-05 6.24953e-06 1.29063e-05 1.27413e-05
          7.42803e-06 1.35711e-05 5.31981e-06 6.73386e-06 6.29823e-06 1.34631e-05 7.16913e-06 9.86122e-06 1.36517e-05 6.82019e-06 6.13738e-06 6.37058e-06
          9.80781e-06 1.41475e-05 7.77896e-06 1.35276e-05 6.41428e-06 5.26164e-06 9.75488e-06 1.35938e-05 5.71103e-06 5.40378e-06 9.71461e-06 6.75781e-06
          5.16786e-06 9.59036e-06 5.38496e-06 1.31224e-05 6.11204e-06 9.33296e-06 6.58237e-06 1.27551e-05 1.26098e-05 6.06967e-06 5.9247e-06 6.25755e-06
          6.56649e-06 8.19186e-06 6.46683e-06 6.38573e-06 6.37717e-06 6.32672e-06 8.00283e-06 5.6182e-06 6.77382e-06 6.49509e-06 1.20755e-05 1.13526e-05
          6.28368e-06 5.40243e-06 7.89067e-06 5.30014e-06 6.02717e-06 7.86974e-06 1.27285e-05 7.73363e-06 6.07839e-06 1.07123e-05 7.58219e-06 5.00356e-06
          1.08259e-05 5.55055e-06 7.52011e-06 5.71216e-06 6.46785e-06 8.30093e-06 7.8115e-06 1.51099e-05 5.08777e-06 7.59091e-06 5.32781e-06 1.06625e-05
          1.57114e-05 9.40237e-06 6.40808e-06 7.18505e-06 5.88432e-06 6.19851e-06 5.63169e-06 5.56746e-06 5.22748e-06 1.13526e-05 6.43692e-06 5.4349e-06
          5.6736e-06 5.99907e-06 5.37525e-06 1.09217e-05 5.29585e-06 5.90054e-06 1.09722e-05 5.70311e-06 5.98958e-06 1.36443e-05 5.92093e-06 5.86775e-06
          5.44228e-06 5.77085e-06 1.11696e-05 8.39909e-06 1.17233e-05 5.10459e-06 6.34717e-06 1.13921e-05 7.86362e-06 6.76666e-06 6.50501e-06 5.67387e-06
          1.27876e-05 5.73561e-06 5.00343e-06 5.74021e-06 5.70924e-06 6.48993e-06 1.42727e-05 5.63142e-06 1.05689e-05 9.91354e-06 6.21464e-06 5.89561e-06
          7.59278e-06 5.08298e-06 5.73416e-06 1.00046e-05 5.02207e-06 7.99569e-06 1.43031e-05 1.33802e-05 6.78126e-06 5.91319e-06 6.36427e-06 7.52635e-06
          6.61011e-06 1.39305e-05 5.36941e-06 1.269e-05 1.10504e-05 5.12358e-06 5.67472e-06 7.35024e-06 1.29102e-05 5.04712e-06 5.54122e-06 7.94393e-06
          1.3622e-05 1.04446e-05 5.25755e-06 1.02738e-05 5.05606e-06 1.13325e-05 6.68156e-06 9.14509e-06 6.51733e-06 9.41357e-06 1.30834e-05 1.16009e-05
          9.40995e-06 1.38215e-05 1.30958e-05 7.72741e-06 5.44934e-06 6.97879e-06 5.91606e-06 5.21331e-06 7.31419e-06 8.19745e-06 5.33103e-06 7.4244e-06
          1.29299e-05 1.17936e-05 5.05812e-06 7.61773e-06 6e-06 6.66582e-06 6.81522e-06 5.15775e-06 1.01556e-05 5.63252e-06 6.73066e-06 9.22792e-06
          5.00559e-06 7.1213e-06 1.10183e-05 7.13429e-06 5.48093e-06 6.59037e-06 6.87571e-06 7.32558e-06 7.3511e-06 5.27234e-06 8.64668e-06 7.34297e-06
          5.13255e-06 7.15873e-06 1.21388e-05 5.7557e-06 5.07712e-06 6.8484e-06 5.75139e-06 5.44695e-06 5.54954e-06 9.26417e-06 9.47201e-06 8.64392e-06
          5.59749e-06 6.77042e-06 6.70908e-06 7.33528e-06 1.16489e-05 9.55979e-06 5.56435e-06 5.08321e-06 1.08454e-05 6.53493e-06 5.27034e-06 6.10073e-06
          6.14992e-06 6.00961e-06 5.18589e-06 7.13364e-06 5.631e-06 1.24742e-05 7.30368e-06 5.73831e-06 1.16833e-05 1.06692e-05 1.0502e-05 5.36553e-06
          5.73829e-06 6.62883e-06 6.52209e-06 6.12352e-06 7.449e-06 6.99902e-06 5.92274e-06 8.29837e-06 1.12529e-05 5.13772e-06 1.14853e-05 6.82681e-06
          6.79078e-06 1.06554e-05 6.94193e-06 5.40414e-06 1.12762e-05 7.01773e-06 5.889e-06 9.66579e-06 6.7923e-06 9.06152e-06 1.069e-05 5.34497e-06
          5.06524e-06 6.02908e-06 5.89496e-06 5.06789e-06 6.71588e-06 5.79616e-06 9.98851e-06 6.11109e-06 1.19382e-05 6.0937e-06 8.98796e-06 9.91135e-06
          8.67566e-06 6.159e-06 5.22483e-06 5.81739e-06 6.20857e-06 5.93291e-06 6.09474e-06 6.45881e-06 1.24491e-05 6.06026e-06 5.93304e-06 6.56012e-06
          8.59724e-06 5.08813e-06 7.21758e-06 5.86258e-06 9.29006e-06 1.04094e-05 5.33181e-06 8.65889e-06 5.60534e-06 6.78727e-06 7.11358e-06 8.41377e-06
          8.40029e-06 5.8302e-06 5.36553e-06 5.09875e-06 9.12437e-06 8.48237e-06 8.14065e-06 7.90371e-06 6.24157e-06 9.77483e-06 7.42861e-06 6.64265e-06
          5.90478e-06 5.99847e-06 6.17321e-06 5.26755e-06 6.57988e-06 5.7016e-06 8.2322e-06 8.17171e-06 9.67638e-06 6.16511e-06 6.66264e-06 5.10234e-06
          5.09583e-06 6.06966e-06 6.30058e-06 8.20877e-06 6.03439e-06 9.94737e-06 9.80781e-06 6.2288e-06 8.30937e-06 7.58257e-06 6.22996e-06 5.28071e-06
          9.55563e-06 7.53805e-06 6.10825e-06 9.24173e-06 5.54488e-06 5.04417e-06 8.33437e-06 6.3615e-06 5.71127e-06 6.44027e-06 8.19864e-06 5.11702e-06
          5.01535e-06 6.27159e-06 5.30145e-06 7.72723e-06 7.18333e-06 7.54007e-06 5.62484e-06 5.35982e-06 5.70811e-06 6.98478e-06 5.55413e-06 5.21596e-06
          6.56671e-06 6.57706e-06
        </DataArray>
        <DataArray type="Float32" Name="G" NumberOfComponents="1" format="ascii">
          3.28699e-11 2.3735e-11 1.11621e-11 1.58124e-10 1.13404e-10 2.27996e-11 2.06982e-12 1.54049e-11 2.36403e-10 2.49727e-12 6.03061e-11 2.39504e-11
          1.09714e-11 1.04324e-11 1.59827e-12 2.48276e-12 3.4498e-12 5.75887e-11 5.69084e-12 2.25135e-11 1.55523e-10 4.51772e-12 8.65533e-12 3.14602e-12
          4.19101e-11 5.22527e-11 1.49222e-11 6.17749e-11 2.05784e-12 7.91126e-13 2.27405e-11 3.50296e-10 1.78543e-12 2.14358e-12 3.8638e-11 9.88283e-12
          1.78827e-12 2.69051e-11 1.49486e-12 5.24025e-10 1.69423e-12 2.32509e-11 4.29671e-12 4.57042e-11 7.86061e-10 2.56878e-12 1.94644e-11 2.89195e-12
          3.68235e-12 9.77674e-12 5.26896e-12 3.13695e-12 6.22375e-12 2.59438e-12 1.2986e-11 1.85971e-12 3.54583e-11 4.32293e-12 8.0993e-11 2.37463e-10
          1.41203e-11 4.47983e-12 3.47946e-11 8.60794e-13 1.6529e-12 9.55244e-12 2.43459e-11 1.13073e-11 1.64482e-12 3.21952e-11 7.87294e-12 2.09383e-12
          3.33746e-11 1.61879e-12 2.25877e-11 5.12915e-12 5.06438e-12 1.93746e-11 1.70658e-11 2.48882e-11 1.29098e-12 1.14443e-11 1.6434e-12 6.04142e-11
          2.33334e-10 8.0041e-12 5.22114e-12 8.00231e-12 2.17379e-12 3.16234e-12 2.21575e-12 2.50056e-12 1.44872e-12 1.01718e-10 2.88595e-12 1.597e-12
          2.58574e-12 3.43758e-12 1.45662e-12 3.36667e-11 1.45081e-12 5.3204e-12 7.36683e-11 2.54933e-12 1.51321e-12 2.2181e-10 2.56019e-12 7.39883e-13
          3.50069e-12 1.75798e-12 5.18605e-11 3.85148e-12 3.95374e-11 8.55198e-13 3.06111e-11 6.6096e-10 8.23736e-12 6.32767e-12 3.4104e-12 2.91223e-12
          1.68012e-10 1.51782e-12 1.49868e-12 1.68406e-12 9.63221e-13 3.76976e-12 8.48246e-11 1.47673e-12 1.13348e-10 1.30784e-11 4.03268e-12 4.89858e-13
          2.18046e-12 2.24925e-12 1.61895e-12 4.53408e-10 6.73543e-13 9.232e-12 2.17242e-10 7.10989e-10 3.19931e-12 3.14956e-12 8.16332e-12 4.78173e-12
          7.63769e-12 4.67604e-10 1.2892e-12 6.32092e-11 5.56028e-10 2.86266e-12 4.56908e-12 1.00994e-11 1.90321e-10 2.64017e-12 2.44419e-12 1.74423e-11
          2.56996e-10 3.45312e-11 1.49156e-12 1.59458e-10 8.33525e-13 4.88195e-11 1.30339e-11 3.04525e-11 9.78891e-12 4.72722e-12 1.06833e-10 4.45407e-11
          1.06517e-11 4.99978e-11 2.34701e-10 3.78172e-12 1.24698e-12 4.58303e-12 1.03169e-12 1.19576e-12 4.26731e-12 1.63898e-11 5.74768e-12 1.21611e-11
          1.18721e-09 7.55767e-11 6.76002e-13 4.17304e-11 1.65188e-12 9.94412e-12 7.50581e-11 1.1646e-12 2.34567e-11 2.13397e-12 5.05881e-12 1.2919e-10
          8.34664e-13 1.51491e-11 7.53408e-11 6.83727e-12 5.86809e-12 2.65091e-11 7.58354e-12 7.55863e-12 1.25384e-11 1.58402e-12 1.36264e-11 9.03909e-12
          1.11426e-12 7.52721e-12 1.21889e-10 2.82125e-12 6.14147e-13 3.95427e-12 1.94763e-12 2.01066e-12 2.86511e-12 2.75639e-10 1.17131e-11 5.19887e-12
          2.78249e-12 4.47985e-12 5.95677e-12 8.71886e-12 5.11508e-11 1.56504e-11 1.45147e-11 1.588e-12 4.66217e-11 2.46443e-12 8.53195e-13 4.53687e-12
          3.76239e-12 9.39454e-13 2.49443e-12 4.94015e-12 2.3782e-12 3.53249e-10 3.24658e-12 2.80038e-11 3.32507e-10 5.99843e-11 6.97524e-11 7.00528e-12
          2.35275e-11 5.25625e-11 1.16068e-11 2.03489e-11 5.91072e-12 8.20602e-12 5.80513e-12 8.88069e-12 4.77654e-11 1.62032e-12 1.12119e-09 2.94347e-12
          4.02724e-12 1.21237e-10 3.65264e-12 1.05937e-12 8.11355e-11 8.46663e-12 2.17166e-12 2.18066e-11 6.21848e-12 1.88002e-11 8.56944e-11 8.3396e-13
          7.41573e-12 4.22197e-12 2.21896e-12 4.96915e-13 4.40176e-12 3.34971e-12 1.31737e-11 1.54628e-11 8.82289e-11 4.59993e-12 3.71073e-11 1.95985e-10
          1.34109e-11 2.72527e-12 1.7049e-12 4.3927e-12 2.45057e-12 1.939e-12 6.41613e-12 3.04319e-12 1.10295e-10 5.46686e-12 2.68768e-12 3.36471e-12
          2.18019e-11 1.16112e-12 1.0149e-11 2.53782e-11 2.18576e-11 1.87154e-11 1.4579e-12 1.11571e-11 1.10491e-12 6.69702e-12 5.67049e-12 3.62413e-11
          7.84327e-12 4.06795e-12 2.41068e-12 2.69285e-12 1.00823e-10 8.79784e-12 1.54065e-10 1.1e-11 3.90339e-12 1.81475e-11 6.63898e-12 8.32807e-12
          2.53651e-12 1.32322e-12 1.53276e-11 5.96105e-12 1.31203e-11 2.92315e-12 1.12995e-11 4.50085e-11 9.92341e-11 1.75429e-12 3.75526e-12 1.51258e-12
          1.97456e-12 8.5378e-12 7.14752e-12 1.48215e-11 1.69668e-12 2.10129e-11 3.45551e-11 3.28709e-12 1.6692e-11 8.67812e-12 2.26612e-12 9.77607e-13
          6.2403e-11 1.16272e-11 1.11789e-11 2.03384e-11 1.29281e-12 1.37615e-12 8.59727e-12 4.59687e-12 1.73234e-12 2.78782e-12 1.20557e-10 6.79016e-12
          1.06484e-12 5.87969e-12 3.91889e-12 4.37385e-12 6.78832e-12 5.27461e-12 1.55819e-12 1.83524e-12 2.66229e-12 6.06807e-12 1.18643e-12 2.23323e-12
          1.26047e-11 3.9458e-12
        </DataArray>
        <DataArray type="Float32" Name="mu" NumberOfComponents="1" format="ascii">
          0.00399706 0.00396984 0.00264072 0.00299459 0.00275786 0.00321928 0.00538128 0.00317653 0.00271677 0.00478268 0.00272359 0.00274409
          0.00411001 0.00264854 0.00554055 0.00447584 0.00474955 0.00265995 0.00423759 0.00326522 0.00264021 0.00442601 0.00486109 0.00470133
          0.00327866 0.00259229 0.00395165 0.0026531 0.00467277 0.00559763 0.00329217 0.00264617 0.00518932 0.00546051 0.00330256 0.00446188
          0.00569261 0.00333527 0.00547822 0.0026979 0.00487924 0.00340634 0.00456665 0.00274234 0.002761 0.00490993 0.00501851 0.00477719
          0.00457643 0.00378416 0.00463896 0.00469138 0.004697 0.00473043 0.00385848 0.00526788 0.0044526 0.00462103 0.0028353 0.00295178
          0.00475939 0.00546178 0.00390444 0.0055597 0.00494119 0.00391317 0.00274571 0.00397123 0.00490358 0.00307283 0.00403849 0.00586849
          0.00304999 0.00532692 0.00406691 0.00518838 0.00463831 0.00374297 0.00393774 0.00251393 0.00577678 0.00403454 0.0055328 0.00308304
          0.00247343 0.00338672 0.0046768 0.00422946 0.00504977 0.00481798 0.00525629 0.00531202 0.00563179 0.00295178 0.00465813 0.00543153
          0.00522067 0.00496211 0.0054874 0.00303121 0.00556389 0.00503716 0.00302148 0.00519592 0.00496923 0.00264096 0.00502141 0.00506274
          0.00542472 0.00514013 0.00298453 0.00370692 0.00288959 0.00575886 0.00471681 0.00294489 0.00391573 0.00445675 0.00461477 0.00522044
          0.00273826 0.00516898 0.00586863 0.00516519 0.00519081 0.00462429 0.00258105 0.00525653 0.00310255 0.00325221 0.00480675 0.00504099
          0.00403369 0.0057819 0.00517017 0.00322997 0.00584804 0.00386137 0.00257837 0.00266891 0.00444831 0.00502738 0.00470549 0.00406403
          0.00454969 0.00261257 0.00549294 0.00275062 0.00300663 0.00573879 0.00521972 0.00414733 0.00272311 0.00582062 0.00533519 0.00388244
          0.00264326 0.00312915 0.00560169 0.00316702 0.00581091 0.0029553 0.0045067 0.00346118 0.00460702 0.00338359 0.00270244 0.00290953
          0.0033846 0.00262316 0.00270099 0.00397393 0.00541821 0.00433787 0.00502516 0.00564611 0.00416491 0.00378202 0.0055297 0.00411173
          0.00272072 0.0028784 0.00580868 0.00402244 0.00496142 0.00451608 0.00442884 0.00570308 0.00319416 0.00525558 0.00447771 0.00343668
          0.00586623 0.00426225 0.00301269 0.00425552 0.00538933 0.00456175 0.00439466 0.00415934 0.00414691 0.00558702 0.00362003 0.00415086
          0.00572936 0.00424292 0.00282601 0.00515249 0.00578819 0.00441001 0.00515601 0.00542041 0.00532782 0.00342612 0.00336738 0.00362097
          0.00528579 0.00445457 0.0044904 0.0041546 0.00290164 0.00334348 0.00531475 0.00578166 0.00304613 0.00459602 0.005589 0.00488739
          0.00485218 0.00495424 0.00567406 0.00425586 0.00525689 0.00277899 0.00417008 0.00516675 0.00289604 0.00308166 0.00311677 0.00549663
          0.00516677 0.00453833 0.00460404 0.004871 0.00410009 0.00432694 0.00502002 0.00374392 0.00296944 0.00572394 0.00292889 0.00442224
          0.00444283 0.0030845 0.00435797 0.00546018 0.00296528 0.00431688 0.00504613 0.00331529 0.00444196 0.00348642 0.00307739 0.00551628
          0.00580098 0.00493977 0.00504149 0.00579812 0.00448639 0.00511965 0.00323387 0.00487992 0.00285594 0.00489247 0.00350909 0.00325275
          0.00361022 0.00484574 0.00563446 0.00510262 0.00481097 0.00501221 0.00489172 0.00464409 0.00278238 0.00491681 0.00501211 0.00458037
          0.00363693 0.00577639 0.00421297 0.0050668 0.00341863 0.00313683 0.00552894 0.00361589 0.00527899 0.00444485 0.00426627 0.00370161
          0.00370648 0.0050924 0.00549663 0.00576507 0.00346739 0.00367706 0.00380392 0.00389902 0.00478815 0.00328706 0.00410973 0.00452999
          0.00503388 0.00496256 0.00483571 0.00559176 0.00456818 0.00519718 0.00376878 0.0037919 0.00331252 0.00484142 0.00451799 0.00576125
          0.00576817 0.00490994 0.00474797 0.00377769 0.00493585 0.00324389 0.00327866 0.00479695 0.00373983 0.00403831 0.00479615 0.00557876
          0.0033446 0.00405864 0.00488197 0.00343264 0.00533194 0.00582384 0.00373058 0.00470732 0.00518912 0.00465598 0.00378156 0.0057457
          0.00585544 0.00476761 0.00555842 0.00397401 0.00423034 0.00405772 0.00526217 0.00550207 0.00519175 0.00433463 0.00532376 0.00564342
          0.0045763 0.00456992
        </DataArray>
      </CellData>
      <Points>
        <DataArray type="Float32" Name="Coordinates" NumberOfComponents="3" format="ascii">
          0.0003185 4.725e-05 8.75e-07 0.00031675 4.8125e-05 1.1375e-05 0.00031675 4.8125e-05 1.1375e-05 0.0003185 4.4625e-05 2.625e-05
          0.000580125 8.6625e-05 1.75e-06 0.000623 0.000184625 0.0004655 0.000623 0.000184625 0.0004655 0.000622125 0.000196875 0.000469875
          0.000623 0.000184625 0.0004655 0.000616875 0.000184625 0.000497875 0.0002905 0.000382375 1.75e-06 0.0002765 0.00038675 5.6e-05
          0.0002765 0.00038675 5.6e-05 0.000252 0.000368375 6.825e-05 0.0002765 0.00038675 5.6e-05 0.00026425 0.0004025 0.000144375
          0.0007455 0.00101062 1.75e-06 0.000742875 0.00100888 1.925e-05 0.000742875 0.00100888 1.925e-05 0.00074725 0.000959875 3.5e-05
          0.000742875 0.00100888 1.925e-05 0.0007315 0.00100888 8.6625e-05 0.000503125 0.00105 1.75e-06 0.0005075 0.0010115 0.00015925
          0.0005075 0.0010115 0.00015925 0.000531125 0.00099925 0.000153125 0.0005075 0.0010115 0.00015925 0.000469875 0.00092925 0.0006475
          0.0003185 4.4625e-05 2.625e-05 0.000322 1.4875e-05 4.725e-05 0.0003185 4.4625e-05 2.625e-05 0.0003115 5.6875e-05 9.975e-05
          0.0007315 0.00100888 8.6625e-05 0.000697375 0.00102725 8.925e-05 0.0007315 0.00100888 8.6625e-05 0.0007315 0.00099575 0.000172375
          0.0003115 5.6875e-05 9.975e-05 0.0003045 5.6875e-05 0.0001435 0.00026425 0.0004025 0.000144375 0.00024675 0.0004025 0.000193375
          0.0007315 0.00099575 0.000172375 0.000725375 0.0009905 0.000205625 0.0003045 5.6875e-05 0.0001435 0.00029925 7.525e-05 0.000182875
          0.00029925 7.525e-05 0.000182875 0.000294875 8.6625e-05 0.000189 0.00029925 7.525e-05 0.000182875 0.000293125 7.525e-05 0.0002275
          0.00024675 0.0004025 0.000193375 0.000245 0.00040425 0.0002205 0.000469875 0.00092925 0.0006475 0.00044275 0.000900375 0.000760375
          0.000725375 0.0009905 0.000205625 0.000727125 0.000966 0.000210875 0.000725375 0.0009905 0.000205625 0.000721875 0.0009765 0.000287
          0.000293125 7.525e-05 0.0002275 0.00029575 9.5375e-05 0.00029575 0.000245 0.00040425 0.0002205 0.0002905 0.000361375 0.000252
          0.000245 0.00040425 0.0002205 0.00023275 0.000413875 0.000266875 0.000721875 0.0009765 0.000287 0.00071925 0.000972125 0.000301
          0.000721875 0.0009765 0.000287 0.00069475 0.0010115 0.000301 0.00023275 0.000413875 0.000266875 0.0002135 0.00043575 0.00027125
          0.00023275 0.000413875 0.000266875 0.00022925 0.000413 0.000294875 0.00029575 9.5375e-05 0.00029575 0.0002905 9.45e-05 0.000314125
          0.00022925 0.000413 0.000294875 0.000223125 0.00038675 0.000303625 0.00022925 0.000413 0.000294875 0.000217875 0.000419125 0.00033075
          0.000681625 0.000951125 0.00032025 0.000716625 0.000970375 0.000308875 0.00071925 0.000972125 0.000301 0.000716625 0.000970375 0.000308875
          0.00071925 0.000972125 0.000301 0.00074725 0.00091525 0.000326375 0.000217875 0.000419125 0.00033075 0.000205625 0.00041825 0.0003675
          0.0002905 9.45e-05 0.000314125 0.0002765 0.00010325 0.000349125 0.000716625 0.000970375 0.000308875 0.00071225 0.00098525 0.000392875
          0.00071225 0.00098525 0.000392875 0.0007105 0.000982625 0.000396375 0.00071225 0.00098525 0.000392875 0.000723625 0.00102112 0.00041475
          0.0002765 0.00010325 0.000349125 0.000273875 0.000100625 0.000352625 0.0002765 0.00010325 0.000349125 0.00027475 0.000119 0.000391125
          0.000205625 0.00041825 0.0003675 0.000165375 0.000433125 0.00037975 0.000205625 0.00041825 0.0003675 0.000217 0.000410375 0.00041475
          0.000139125 0.000469875 0.00037275 0.00012775 0.000496125 0.000377125 0.000139125 0.000469875 0.00037275 0.000165375 0.000433125 0.00037975
          0.00027475 0.000119 0.000391125 0.0002765 0.00013125 0.000410375 0.00012775 0.000496125 0.000377125 0.000144375 0.000531125 0.000413
          0.000217 0.000410375 0.00041475 0.00020125 0.000394625 0.00043925 0.000144375 0.000531125 0.000413 0.0001575 0.000525 0.0004515
          0.0002765 0.00013125 0.000410375 0.000275625 0.000130375 0.000415625 0.0007105 0.000982625 0.000396375 0.000679 0.000965125 0.000396375
          0.0007105 0.000982625 0.000396375 0.00070525 0.000970375 0.000431375 0.00070525 0.000970375 0.000431375 0.00070175 0.000968625 0.000440125
          0.000275625 0.000130375 0.000415625 0.00027125 0.000133 0.0004235 0.0001575 0.000525 0.0004515 0.000160125 0.000529375 0.000464625
          0.00020125 0.000394625 0.00043925 0.000200375 0.000392875 0.000450625 0.00027125 0.000133 0.0004235 0.000261625 0.000126 0.000489125
          0.00113488 0.000408625 0.000571375 0.00108325 0.000387625 0.00053725 0.00113488 0.000408625 0.000571375 0.00109812 0.00040775 0.000590625
          0.00113488 0.000408625 0.000571375 0.00111562 0.000415625 0.000728875 0.00113488 0.000408625 0.000571375 0.00113312 0.000431375 0.000594125
          0.00070175 0.000968625 0.000440125 0.000742 0.000921375 0.000469 0.00070175 0.000968625 0.000440125 0.000686875 0.000972125 0.00049175
          0.000200375 0.000392875 0.000450625 0.00019425 0.000408625 0.000489125 0.000742 0.000921375 0.000469 0.00074725 0.000916125 0.00048825
          0.000686875 0.000972125 0.00049175 0.000693 0.0009625 0.000545125 0.000160125 0.000529375 0.000464625 0.000153125 0.000552125 0.00050225
          0.00019425 0.000408625 0.000489125 0.000186375 0.000406 0.0005005 0.000153125 0.000552125 0.00050225 0.00015575 0.00055475 0.000518
          0.000616875 0.000184625 0.000497875 0.00062475 0.000205625 0.00047775 0.000616875 0.000184625 0.000497875 0.000637875 0.000195125 0.000485625
          0.000616875 0.000184625 0.000497875 0.000630875 0.000198625 0.000487375 0.000616875 0.000184625 0.000497875 0.000567875 0.000188125 0.00083125
          0.00074725 0.000916125 0.00048825 0.00076475 0.00090475 0.000518 0.000186375 0.000406 0.0005005 0.000186375 0.000398125 0.0005285
          0.00076475 0.00090475 0.000518 0.0007805 0.000882875 0.000541625 0.000693 0.0009625 0.000545125 0.000692125 0.00096075 0.000573125
          0.000567875 0.000188125 0.00083125 0.000569625 0.0001995 0.000872375 0.000567875 0.000188125 0.00083125 0.0004865 0.000128625 0.000889875
          0.000186375 0.000398125 0.0005285 0.0002065 0.00040425 0.000546875 0.000186375 0.000398125 0.0005285 0.000168875 0.000385875 0.000552125
          0.000168875 0.000385875 0.000552125 0.00014 0.000389375 0.000585375 0.0002065 0.00040425 0.000546875 0.000221375 0.0004095 0.00058275
          8.05e-05 0.00039025 0.000585375 4.9875e-05 0.000403375 0.000574875 8.05e-05 0.00039025 0.000585375 0.000109375 0.000392 0.00058975
          4.2e-05 0.000434 0.000555625 4.9875e-05 0.000403375 0.000574875 0.000692125 0.00096075 0.000573125 0.0006825 0.000954625 0.000592375
          0.000692125 0.00096075 0.000573125 0.000721875 0.00099575 0.00059675 0.000221375 0.0004095 0.00058275 0.00025725 0.000427 0.000590625
          0.00014 0.000389375 0.000585375 0.000109375 0.000392 0.00058975 0.000721875 0.00099575 0.00059675 0.000732375 0.00102375 0.00060375
          0.0006825 0.000954625 0.000592375 0.000641375 0.0009555 0.00058275 0.0006825 0.000954625 0.000592375 0.000671125 0.000951125 0.0006475
          0.00025725 0.000427 0.000590625 0.000280875 0.00045675 0.000601125 0.000732375 0.00102375 0.00060375 0.000728875 0.00103688 0.000616
          0.000671125 0.000951125 0.0006475 0.00067025 0.0009415 0.000672 0.000539 0.000783125 0.00063175 0.000564375 0.0008015 0.000639625
          0.000728 1.75e-06 0.00070525 0.000763 3.325e-05 0.0006545 0.000728 1.75e-06 0.00070525 0.00072275 7e-06 0.000728
          0.000564375 0.0008015 0.000639625 0.000581875 0.000821625 0.000667625 0.00026425 0.000846125 0.0006895 0.000319375 0.00084875 0.000805
          0.0009345 0.00048125 0.000678125 0.00094675 0.0004795 0.000692125 0.000581875 0.000821625 0.000667625 0.00061425 0.0008435 0.00069825
          0.00067025 0.0009415 0.000672 0.000665 0.000924875 0.00070875 0.00044275 0.000900375 0.000760375 0.000319375 0.00084875 0.000805
          0.00044275 0.000900375 0.000760375 0.00044975 0.0008995 0.000826875 0.001134 0.000464625 0.000709625 0.00111562 0.000415625 0.000728875
          0.00061425 0.0008435 0.00069825 0.000616875 0.000846125 0.000700875 0.000665 0.000924875 0.00070875 0.000665 0.000924875 0.00071225
          0.000665 0.000924875 0.00070875 0.000653625 0.0008785 0.000713125 0.00070175 0.000828625 0.000720125 0.000676375 0.000844375 0.000716625
          0.00070175 0.000828625 0.000720125 0.000742 0.000812 0.000735 0.00094675 0.0004795 0.000692125 0.000959 0.000469875 0.000714875
          0.00111562 0.000415625 0.000728875 0.001106 0.00042 0.000749875 0.000959 0.000469875 0.000714875 0.000987875 0.000438375 0.00075075
          0.00077 0.00081725 0.000730625 0.000742 0.000812 0.000735 0.000616875 0.000846125 0.000700875 0.000653625 0.0008785 0.000713125
          0.000641375 1.575e-05 0.00070175 0.00072275 7e-06 0.000728 0.000653625 0.0008785 0.000713125 0.000676375 0.000844375 0.000716625
          0.00072275 7e-06 0.000728 0.000718375 2.1e-05 0.00080325 0.00110075 0.00048825 0.0008295 0.00110862 0.000436625 0.000825125
          0.000665 0.000924875 0.00071225 0.00066325 0.00092225 0.00072625 0.00066325 0.00092225 0.00072625 0.000672875 0.000937125 0.000816375
          0.000987875 0.000438375 0.00075075 0.00101588 0.000434875 0.000763875 0.00039025 0.000156625 0.00071925 0.0004865 0.000128625 0.000889875
          0.0004865 0.000128625 0.000889875 0.000433125 8.75e-07 0.000954625 0.000802375 0.00069825 0.000748125 0.00080325 0.000707875 0.0007665
          0.000742 0.000812 0.000735 0.00076825 0.0007735 0.000758625 0.000672875 0.000937125 0.000816375 0.00067375 0.000937125 0.000819
          0.000672875 0.000937125 0.000816375 0.000611625 0.000947625 0.0008365 0.000718375 2.1e-05 0.00080325 0.000707875 6.3e-05 0.000786625
          0.000718375 2.1e-05 0.00080325 0.000723625 2.0125e-05 0.000833 0.001106 0.00042 0.000749875 0.00110338 0.0004235 0.000755125
          0.001106 0.00042 0.000749875 0.00110425 0.000361375 0.000763 0.00076825 0.0007735 0.000758625 0.00078225 0.000749875 0.0007735
          0.0010325 0.0004305 0.000762125 0.00101588 0.000434875 0.000763875 0.0010325 0.0004305 0.000762125 0.001099 0.000426125 0.0007665
          0.00111738 0.000438375 0.000746375 0.00110338 0.0004235 0.000755125 0.00110338 0.0004235 0.000755125 0.001099 0.000426125 0.0007665
          0.00080325 0.000707875 0.0007665 0.00078225 0.000749875 0.0007735 0.001099 0.000426125 0.0007665 0.00110862 0.000436625 0.000825125
          0.00044975 0.0008995 0.000826875 0.000448 0.00089775 0.0008295 0.00044975 0.0008995 0.000826875 0.0004445 0.00091175 0.000837375
          0.000707875 6.3e-05 0.000786625 0.000707875 8.05e-05 0.000788375 0.00110862 0.000436625 0.000825125 0.00113488 0.00044625 0.000828625
          0.00110862 0.000436625 0.000825125 0.00110688 0.00042875 0.00084525 0.000119875 0.000644 0.00082425 0.000121625 0.00063 0.000833875
          0.00026425 0.000270375 0.0008365 0.0002485 0.00026775 0.000861 0.000723625 2.0125e-05 0.000833 0.00070875 1.75e-06 0.000830375
          0.000723625 2.0125e-05 0.000833 0.000727125 1.8375e-05 0.000853125 0.00067375 0.000937125 0.000819 0.00068425 0.000926625 0.000861
          0.00068425 0.000926625 0.000861 0.000720125 0.0009345 0.000865375 0.00068425 0.000926625 0.000861 0.00068425 0.000924875 0.00086975
          0.000121625 0.00063 0.000833875 0.00013475 0.0005845 0.000861 0.00110688 0.00042875 0.00084525 0.00108762 0.0004305 0.00088725
          0.000448 0.00089775 0.0008295 0.000443625 0.000907375 0.00083825 0.000448 0.00089775 0.0008295 0.0004515 0.000902125 0.00085575
          0.0004515 0.000902125 0.00085575 0.00044275 0.00091175 0.000846125 0.0004515 0.000902125 0.00085575 0.000448875 0.000865375 0.00105088
          0.000699125 1.75e-06 0.000905625 0.000721875 9.625e-06 0.000872375 0.000699125 1.75e-06 0.000905625 0.0006755 1.4e-05 0.0009555
          0.000569625 0.0001995 0.000872375 0.0006125 0.000256375 0.000924 0.000569625 0.0001995 0.000872375 0.000552125 0.000196 0.0009835
          0.000727125 1.8375e-05 0.000853125 0.000721875 9.625e-06 0.000868875 0.000727125 1.8375e-05 0.000853125 0.000812875 5.775e-05 0.000870625
          0.00013475 0.0005845 0.000861 0.00016625 0.00055825 0.00089425 0.0002485 0.00026775 0.000861 0.000210875 0.00023975 0.000872375
          0.0002485 0.00026775 0.000861 0.000333375 0.00029925 0.000891625 0.000385 0.000347375 0.0008645 0.000350875 0.00033075 0.00088725
          0.000200375 0.0003955 0.000881125 0.00022225 0.00045675 0.000884625 0.000200375 0.0003955 0.000881125 0.000202125 0.000370125 0.000896
          0.000174125 0.0005635 0.000889 0.000168 0.0005565 0.000893375 0.00072275 7.875e-06 0.000844375 0.000721875 9.625e-06 0.000868875
          0.000721875 9.625e-06 0.000868875 0.000721875 9.625e-06 0.000872375 0.00108762 0.0004305 0.00088725 0.00108325 0.000441 0.000921375